                               Psi4 1.2 release

  ==> Input File <==

--------------------------------------------------------------------------
memory 1000 mb

molecule {
	C	-0.0126981359	 1.0858041578	 0.0080009958
	H	 0.002150416	-0.0060313176	 0.0019761204
	H	 1.0117308433	 1.4637511618	 0.0002765748
	H	-0.540815069	 1.4475266138	-0.8766437152
	H	-0.5238136345	 1.4379326443	 0.9063972942
units angstrom
}

set basis cc-pVDZ
energy('scf')
--------------------------------------------------------------------------

    Molecular point group: c1

    Geometry (in Angstrom), charge = 0, multiplicity = 1:

       Center              X                  Y                   Z               Mass
    ------------   -----------------  -----------------  -----------------  -----------------
         C           -0.000002835223     0.000002359295    -0.000000144026    12.000000000000
         H            0.014845716677    -1.091833116105    -0.006025019426     1.007825032070
         H            1.024426143977     0.377949363295    -0.007724565026     1.007825032070
         H           -0.528119768323     0.361724815295    -0.884644855026     1.007825032070
         H           -0.511118333823     0.352130845795     0.898396154374     1.007825032070

  Charge       = 0
  Multiplicity = 1
  Basis Set: CC-PVDZ
    Blend: CC-PVDZ
  Basis Set: (CC-PVDZ AUX)
    Blend: CC-PVDZ-JKFIT

    Orbital Energies [Eh]
    ---------------------

    Doubly Occupied:

       1A    -11.217096     2A     -0.941198     3A     -0.542083
       4A     -0.542081     5A     -0.542072

  @DF-RHF Final Energy:   -40.19871339749164

   => Energetics <=

    Nuclear Repulsion Energy =             13.4114006335475882
    One-Electron Energy =                 -79.6511759642196466
    Two-Electron Energy =                  26.0410619331804156
    Total Energy =                        -40.1987133974916446

  Dipole Moment: [D]
     X:     0.0000      Y:    -0.0000      Z:    -0.0000     Total:     0.0000

*** Psi4 exiting successfully. Buy a developer a beer!
