                               Psi4 1.2 release

  ==> Input File <==

--------------------------------------------------------------------------
memory 2 gb

molecule h20 {
O
H 1 0.96
H 1 0.96 2 104.5
}

set basis cc-pVDZ
e, wfn = energy('ccsd', return_wfn=True)

--------------------------------------------------------------------------

    Molecular point group: c2v

    Geometry (in Angstrom), charge = 0, multiplicity = 1:

       Center              X                  Y                   Z               Mass
    ------------   -----------------  -----------------  -----------------  -----------------
         O            0.000000000000     0.000000000000    -0.065775570538    15.994914619560
         H            0.000000000000    -0.759061990794     0.521953018295     1.007825032070
         H            0.000000000000     0.759061990794     0.521953018295     1.007825032070

  Charge       = 0
  Multiplicity = 1
  Basis Set: CC-PVDZ
    Blend: CC-PVDZ

    Orbital Energies [Eh]
    ---------------------

    Doubly Occupied:

       1A1   -20.550919     2A1    -1.335305     1B2    -0.697799
       3A1    -0.566090     1B1    -0.492954

  @RHF Final Energy:   -76.02665366167123

   => Energetics <=

    Nuclear Repulsion Energy =              9.1681932603875733
    One-Electron Energy =                -123.1035619131077112
    Two-Electron Energy =                  37.9087149910489032
    Total Energy =                        -76.0266536616712472

  Dipole Moment: [D]
     X:     0.0000      Y:     0.0000      Z:     2.0592     Total:     2.0592

      * MP2 total energy                      =  -76.230808461528326
      * CCSD total energy                     =  -76.240134158715875
*** Psi4 exiting successfully. Buy a developer a beer!
